# vtk DataFile Version 3.0
PhaseFieldFerro Vector Field
ASCII
DATASET STRUCTURED_POINTS
DIMENSIONS 100 100 1
ORIGIN 0 0 0
SPACING 0.010101 0.010101 1
POINT_DATA 100
VECTORS Py double
-0.570553 -0.570553 0.0
-0.564878 -0.562051 0.0
-0.558994 -0.553167 0.0
-0.552896 -0.543926 0.0
-0.546579 -0.534352 0.0
-0.540037 -0.524469 0.0
-0.533266 -0.514301 0.0
-0.526261 -0.503869 0.0
-0.519015 -0.493197 0.0
-0.511526 -0.482306 0.0
-0.503788 -0.471215 0.0
-0.495796 -0.459946 0.0
-0.487548 -0.448516 0.0
-0.479038 -0.436944 0.0
-0.470264 -0.425246 0.0
-0.461223 -0.41344 0.0
-0.451911 -0.401539 0.0
-0.442327 -0.389559 0.0
-0.432468 -0.377512 0.0
-0.422332 -0.36541 0.0
-0.41192 -0.353265 0.0
-0.40123 -0.341088 0.0
-0.390262 -0.328887 0.0
-0.379018 -0.316672 0.0
-0.367498 -0.30445 0.0
-0.355704 -0.292228 0.0
-0.34364 -0.280013 0.0
-0.331307 -0.267809 0.0
-0.318711 -0.255622 0.0
-0.305856 -0.243456 0.0
-0.292747 -0.231313 0.0
-0.279391 -0.219197 0.0
-0.265794 -0.20711 0.0
-0.251965 -0.195053 0.0
-0.237911 -0.183027 0.0
-0.223642 -0.171033 0.0
-0.209167 -0.159071 0.0
-0.194498 -0.14714 0.0
-0.179646 -0.135241 0.0
-0.164622 -0.12337 0.0
-0.149439 -0.111528 0.0
-0.134111 -0.0997126 0.0
-0.11865 -0.0879213 0.0
-0.103073 -0.0761519 0.0
-0.087392 -0.0644021 0.0
-0.0716235 -0.0526692 0.0
-0.0557827 -0.0409502 0.0
-0.0398854 -0.0292422 0.0
-0.0239475 -0.0175421 0.0
-0.00798521 -0.00584684 0.0
0.00798521 0.00584684 0.0
0.0239475 0.0175421 0.0
0.0398854 0.0292422 0.0
0.0557827 0.0409502 0.0
0.0716235 0.0526692 0.0
0.087392 0.0644021 0.0
0.103073 0.0761519 0.0
0.11865 0.0879213 0.0
0.134111 0.0997126 0.0
0.149439 0.111528 0.0
0.164622 0.12337 0.0
0.179646 0.135241 0.0
0.194498 0.14714 0.0
0.209167 0.159071 0.0
0.223642 0.171033 0.0
0.237911 0.183027 0.0
0.251965 0.195053 0.0
0.265794 0.20711 0.0
0.279391 0.219197 0.0
0.292747 0.231313 0.0
0.305856 0.243456 0.0
0.318711 0.255622 0.0
0.331307 0.267809 0.0
0.34364 0.280013 0.0
0.355704 0.292228 0.0
0.367498 0.30445 0.0
0.379018 0.316672 0.0
0.390262 0.328887 0.0
0.40123 0.341088 0.0
0.41192 0.353265 0.0
0.422332 0.36541 0.0
0.432468 0.377512 0.0
0.442327 0.389559 0.0
0.451911 0.401539 0.0
0.461223 0.41344 0.0
0.470264 0.425246 0.0
0.479038 0.436944 0.0
0.487548 0.448516 0.0
0.495796 0.459946 0.0
0.503788 0.471215 0.0
0.511526 0.482306 0.0
0.519015 0.493197 0.0
0.526261 0.503869 0.0
0.533266 0.514301 0.0
0.540037 0.524469 0.0
0.546579 0.534352 0.0
0.552896 0.543926 0.0
0.558994 0.553167 0.0
0.564878 0.562051 0.0
0.570553 0.570553 0.0
